#LAMMPS 100 water

40 atoms
24 angles
4 atom types
6 angle types

0.0 8.08 xlo xhi
0.0 8.08 ylo yhi
0.0 8.08 zlo zhi


Masses

1 137.327  #Ba
2 40.078  #Ca
3 91.224 #Zr
4 15.9993  #o

Angle Coeffs

1 0.0 180.00
2 0.0 180.00
3 0.0 180.00
4 0.0 180.00
5 0.0 180.00
6 0.0 180.00

Atoms

1 1 1 1e-08 0.4 0.0 0.0
2 1 1 1e-08 4.04 0.0 0.0
3 1 1 1e-08 0.0 4.04 0.0
4 1 1 1e-08 4.04 4.04 0.0
5 1 1 1e-08 0.0 0.0 4.04
6 1 1 1e-08 4.04 0.0 4.04
7 1 1 1e-08 0.0 4.04 4.04
8 1 1 1e-08 4.04 4.04 4.04
9 1 3 0.00000001 2.02  2.02 2.02
10 1 3 0.00000001 6.06  2.02 2.02
11 1 3 0.00000001 2.02  6.06 2.02
12 1 3 0.00000001 6.06  6.06 2.02
13 1 3 0.00000001 2.02  2.02 6.06
14 1 3 0.00000001 6.06  2.02 6.06
15 1 3 0.00000001 2.02  6.06 6.06
16 1 3 0.00000001 6.06  6.06 6.06
17 1 4 0.00000001 2.02 2.02 0.0
18 1 4 0.00000001 6.06 2.02 0.0
19 1 4 0.00000001 2.02 6.06 0.0
20 1 4 0.00000001 6.06 6.06 0.0
21 1 4 0.00000001 2.02 2.02 4.04
22 1 4 0.00000001 6.06 2.02 4.04
23 1 4 0.00000001 2.02 6.06 4.04
24 1 4 0.00000001 6.06 6.06 4.04
25 1 4 0.00000001 2.02 0.0 2.02
26 1 4 0.00000001 6.06 0.0 2.02
27 1 4 0.00000001 2.02 4.04 2.02
28 1 4 0.00000001 6.06 4.04 2.02
29 1 4 0.00000001 2.02 0.0 6.06
30 1 4 0.00000001 6.06 0.0 6.06
31 1 4 0.00000001 2.02 4.04 6.06
32 1 4 0.00000001 6.06 4.04 6.06
33 1 4 0.00000001 0.0 2.02 2.02
34 1 4 0.00000001 4.04 2.02 2.02
35 1 4 0.00000001 0.0 6.06 2.02
36 1 4 0.00000001 4.04 6.06 2.02
37 1 4 0.00000001 0.0 2.02 6.06
38 1 4 0.00000001 4.04 2.02 6.06
39 1 4 0.00000001 0.0 6.06 6.06
40 1 4 0.00000001 4.04 6.06 6.06

Angles

1 1 17 21 17
2 1 18 22 18
3 1 19 23 19
4 1 20 24 20
5 1 21 17 21
6 1 22 18 22
7 1 23 19 23
8 1 24 20 24
9 1 25 27 25
10 1 26 28 26
11 1 27 25 27
12 1 28 26 28
13 1 29 31 29
14 1 30 32 30
15 1 31 29 31
16 1 32 30 32
17 1 33 34 33
18 1 34 33 34
19 1 35 36 35
20 1 36 35 36
21 1 37 38 37
22 1 38 37 38
23 1 39 40 39
24 1 40 39 40
